+ 0.5 0 1 cbr 210 ------- 0 0.0 3.0 0 0
- 0.5 0 1 cbr 210 ------- 0 0.0 3.0 0 0
+ 0.50375 0 1 cbr 210 ------- 0 0.0 3.0 1 1
- 0.50375 0 1 cbr 210 ------- 0 0.0 3.0 1 1
+ 0.5075 0 1 cbr 210 ------- 0 0.0 3.0 2 2
- 0.5075 0 1 cbr 210 ------- 0 0.0 3.0 2 2
r 0.510168 0 1 cbr 210 ------- 0 0.0 3.0 0 0
+ 0.510168 1 2 cbr 210 ------- 0 0.0 3.0 0 0
- 0.510168 1 2 cbr 210 ------- 0 0.0 3.0 0 0
+ 0.51125 0 1 cbr 210 ------- 0 0.0 3.0 3 3
- 0.51125 0 1 cbr 210 ------- 0 0.0 3.0 3 3
r 0.513918 0 1 cbr 210 ------- 0 0.0 3.0 1 1
+ 0.513918 1 2 cbr 210 ------- 0 0.0 3.0 1 1
- 0.513918 1 2 cbr 210 ------- 0 0.0 3.0 1 1
+ 0.515 0 1 cbr 210 ------- 0 0.0 3.0 4 4
- 0.515 0 1 cbr 210 ------- 0 0.0 3.0 4 4
r 0.517668 0 1 cbr 210 ------- 0 0.0 3.0 2 2
+ 0.517668 1 2 cbr 210 ------- 0 0.0 3.0 2 2
- 0.517668 1 2 cbr 210 ------- 0 0.0 3.0 2 2
+ 0.51875 0 1 cbr 210 ------- 0 0.0 3.0 5 5
- 0.51875 0 1 cbr 210 ------- 0 0.0 3.0 5 5
r 0.520336 1 2 cbr 210 ------- 0 0.0 3.0 0 0
+ 0.520336 2 3 cbr 210 ------- 0 0.0 3.0 0 0
- 0.520336 2 3 cbr 210 ------- 0 0.0 3.0 0 0
r 0.521418 0 1 cbr 210 ------- 0 0.0 3.0 3 3
+ 0.521418 1 2 cbr 210 ------- 0 0.0 3.0 3 3
- 0.521418 1 2 cbr 210 ------- 0 0.0 3.0 3 3
+ 0.5225 0 1 cbr 210 ------- 0 0.0 3.0 6 6
- 0.5225 0 1 cbr 210 ------- 0 0.0 3.0 6 6
r 0.524086 1 2 cbr 210 ------- 0 0.0 3.0 1 1
+ 0.524086 2 3 cbr 210 ------- 0 0.0 3.0 1 1
- 0.524086 2 3 cbr 210 ------- 0 0.0 3.0 1 1
r 0.525168 0 1 cbr 210 ------- 0 0.0 3.0 4 4
+ 0.525168 1 2 cbr 210 ------- 0 0.0 3.0 4 4
- 0.525168 1 2 cbr 210 ------- 0 0.0 3.0 4 4
+ 0.52625 0 1 cbr 210 ------- 0 0.0 3.0 7 7
- 0.52625 0 1 cbr 210 ------- 0 0.0 3.0 7 7
r 0.527836 1 2 cbr 210 ------- 0 0.0 3.0 2 2
+ 0.527836 2 3 cbr 210 ------- 0 0.0 3.0 2 2
- 0.527836 2 3 cbr 210 ------- 0 0.0 3.0 2 2
r 0.528918 0 1 cbr 210 ------- 0 0.0 3.0 5 5
+ 0.528918 1 2 cbr 210 ------- 0 0.0 3.0 5 5
- 0.528918 1 2 cbr 210 ------- 0 0.0 3.0 5 5
+ 0.53 0 1 cbr 210 ------- 0 0.0 3.0 8 8
- 0.53 0 1 cbr 210 ------- 0 0.0 3.0 8 8
r 0.530504 2 3 cbr 210 ------- 0 0.0 3.0 0 0
r 0.531586 1 2 cbr 210 ------- 0 0.0 3.0 3 3
+ 0.531586 2 3 cbr 210 ------- 0 0.0 3.0 3 3
- 0.531586 2 3 cbr 210 ------- 0 0.0 3.0 3 3
r 0.532668 0 1 cbr 210 ------- 0 0.0 3.0 6 6
+ 0.532668 1 2 cbr 210 ------- 0 0.0 3.0 6 6
- 0.532668 1 2 cbr 210 ------- 0 0.0 3.0 6 6
+ 0.53375 0 1 cbr 210 ------- 0 0.0 3.0 9 9
- 0.53375 0 1 cbr 210 ------- 0 0.0 3.0 9 9
r 0.534254 2 3 cbr 210 ------- 0 0.0 3.0 1 1
r 0.535336 1 2 cbr 210 ------- 0 0.0 3.0 4 4
+ 0.535336 2 3 cbr 210 ------- 0 0.0 3.0 4 4
- 0.535336 2 3 cbr 210 ------- 0 0.0 3.0 4 4
r 0.536418 0 1 cbr 210 ------- 0 0.0 3.0 7 7
+ 0.536418 1 2 cbr 210 ------- 0 0.0 3.0 7 7
- 0.536418 1 2 cbr 210 ------- 0 0.0 3.0 7 7
+ 0.5375 0 1 cbr 210 ------- 0 0.0 3.0 10 10
- 0.5375 0 1 cbr 210 ------- 0 0.0 3.0 10 10
r 0.538004 2 3 cbr 210 ------- 0 0.0 3.0 2 2
r 0.539086 1 2 cbr 210 ------- 0 0.0 3.0 5 5
+ 0.539086 2 3 cbr 210 ------- 0 0.0 3.0 5 5
- 0.539086 2 3 cbr 210 ------- 0 0.0 3.0 5 5
r 0.540168 0 1 cbr 210 ------- 0 0.0 3.0 8 8
+ 0.540168 1 2 cbr 210 ------- 0 0.0 3.0 8 8
- 0.540168 1 2 cbr 210 ------- 0 0.0 3.0 8 8
+ 0.54125 0 1 cbr 210 ------- 0 0.0 3.0 11 11
- 0.54125 0 1 cbr 210 ------- 0 0.0 3.0 11 11
r 0.541754 2 3 cbr 210 ------- 0 0.0 3.0 3 3
r 0.542836 1 2 cbr 210 ------- 0 0.0 3.0 6 6
+ 0.542836 2 3 cbr 210 ------- 0 0.0 3.0 6 6
- 0.542836 2 3 cbr 210 ------- 0 0.0 3.0 6 6
r 0.543918 0 1 cbr 210 ------- 0 0.0 3.0 9 9
+ 0.543918 1 2 cbr 210 ------- 0 0.0 3.0 9 9
- 0.543918 1 2 cbr 210 ------- 0 0.0 3.0 9 9
+ 0.545 0 1 cbr 210 ------- 0 0.0 3.0 12 12
- 0.545 0 1 cbr 210 ------- 0 0.0 3.0 12 12
r 0.545504 2 3 cbr 210 ------- 0 0.0 3.0 4 4
r 0.546586 1 2 cbr 210 ------- 0 0.0 3.0 7 7
+ 0.546586 2 3 cbr 210 ------- 0 0.0 3.0 7 7
- 0.546586 2 3 cbr 210 ------- 0 0.0 3.0 7 7
r 0.547668 0 1 cbr 210 ------- 0 0.0 3.0 10 10
+ 0.547668 1 2 cbr 210 ------- 0 0.0 3.0 10 10
- 0.547668 1 2 cbr 210 ------- 0 0.0 3.0 10 10
+ 0.54875 0 1 cbr 210 ------- 0 0.0 3.0 13 13
- 0.54875 0 1 cbr 210 ------- 0 0.0 3.0 13 13
r 0.549254 2 3 cbr 210 ------- 0 0.0 3.0 5 5
r 0.550336 1 2 cbr 210 ------- 0 0.0 3.0 8 8
+ 0.550336 2 3 cbr 210 ------- 0 0.0 3.0 8 8
- 0.550336 2 3 cbr 210 ------- 0 0.0 3.0 8 8
r 0.551418 0 1 cbr 210 ------- 0 0.0 3.0 11 11
+ 0.551418 1 2 cbr 210 ------- 0 0.0 3.0 11 11
- 0.551418 1 2 cbr 210 ------- 0 0.0 3.0 11 11
+ 0.5525 0 1 cbr 210 ------- 0 0.0 3.0 14 14
- 0.5525 0 1 cbr 210 ------- 0 0.0 3.0 14 14
r 0.553004 2 3 cbr 210 ------- 0 0.0 3.0 6 6
r 0.554086 1 2 cbr 210 ------- 0 0.0 3.0 9 9
+ 0.554086 2 3 cbr 210 ------- 0 0.0 3.0 9 9
- 0.554086 2 3 cbr 210 ------- 0 0.0 3.0 9 9
r 0.555168 0 1 cbr 210 ------- 0 0.0 3.0 12 12
+ 0.555168 1 2 cbr 210 ------- 0 0.0 3.0 12 12
- 0.555168 1 2 cbr 210 ------- 0 0.0 3.0 12 12
+ 0.55625 0 1 cbr 210 ------- 0 0.0 3.0 15 15
- 0.55625 0 1 cbr 210 ------- 0 0.0 3.0 15 15
r 0.556754 2 3 cbr 210 ------- 0 0.0 3.0 7 7
r 0.557836 1 2 cbr 210 ------- 0 0.0 3.0 10 10
+ 0.557836 2 3 cbr 210 ------- 0 0.0 3.0 10 10
- 0.557836 2 3 cbr 210 ------- 0 0.0 3.0 10 10
r 0.558918 0 1 cbr 210 ------- 0 0.0 3.0 13 13
+ 0.558918 1 2 cbr 210 ------- 0 0.0 3.0 13 13
- 0.558918 1 2 cbr 210 ------- 0 0.0 3.0 13 13
+ 0.56 0 1 cbr 210 ------- 0 0.0 3.0 16 16
- 0.56 0 1 cbr 210 ------- 0 0.0 3.0 16 16
r 0.560504 2 3 cbr 210 ------- 0 0.0 3.0 8 8
r 0.561586 1 2 cbr 210 ------- 0 0.0 3.0 11 11
+ 0.561586 2 3 cbr 210 ------- 0 0.0 3.0 11 11
- 0.561586 2 3 cbr 210 ------- 0 0.0 3.0 11 11
r 0.562668 0 1 cbr 210 ------- 0 0.0 3.0 14 14
+ 0.562668 1 2 cbr 210 ------- 0 0.0 3.0 14 14
- 0.562668 1 2 cbr 210 ------- 0 0.0 3.0 14 14
+ 0.56375 0 1 cbr 210 ------- 0 0.0 3.0 17 17
- 0.56375 0 1 cbr 210 ------- 0 0.0 3.0 17 17
r 0.564254 2 3 cbr 210 ------- 0 0.0 3.0 9 9
r 0.565336 1 2 cbr 210 ------- 0 0.0 3.0 12 12
+ 0.565336 2 3 cbr 210 ------- 0 0.0 3.0 12 12
- 0.565336 2 3 cbr 210 ------- 0 0.0 3.0 12 12
r 0.566418 0 1 cbr 210 ------- 0 0.0 3.0 15 15
+ 0.566418 1 2 cbr 210 ------- 0 0.0 3.0 15 15
- 0.566418 1 2 cbr 210 ------- 0 0.0 3.0 15 15
+ 0.5675 0 1 cbr 210 ------- 0 0.0 3.0 18 18
- 0.5675 0 1 cbr 210 ------- 0 0.0 3.0 18 18
r 0.568004 2 3 cbr 210 ------- 0 0.0 3.0 10 10
r 0.569086 1 2 cbr 210 ------- 0 0.0 3.0 13 13
+ 0.569086 2 3 cbr 210 ------- 0 0.0 3.0 13 13
- 0.569086 2 3 cbr 210 ------- 0 0.0 3.0 13 13
r 0.570168 0 1 cbr 210 ------- 0 0.0 3.0 16 16
+ 0.570168 1 2 cbr 210 ------- 0 0.0 3.0 16 16
- 0.570168 1 2 cbr 210 ------- 0 0.0 3.0 16 16
+ 0.57125 0 1 cbr 210 ------- 0 0.0 3.0 19 19
- 0.57125 0 1 cbr 210 ------- 0 0.0 3.0 19 19
r 0.571754 2 3 cbr 210 ------- 0 0.0 3.0 11 11
r 0.572836 1 2 cbr 210 ------- 0 0.0 3.0 14 14
+ 0.572836 2 3 cbr 210 ------- 0 0.0 3.0 14 14
- 0.572836 2 3 cbr 210 ------- 0 0.0 3.0 14 14
r 0.573918 0 1 cbr 210 ------- 0 0.0 3.0 17 17
+ 0.573918 1 2 cbr 210 ------- 0 0.0 3.0 17 17
- 0.573918 1 2 cbr 210 ------- 0 0.0 3.0 17 17
+ 0.575 0 1 cbr 210 ------- 0 0.0 3.0 20 20
- 0.575 0 1 cbr 210 ------- 0 0.0 3.0 20 20
r 0.575504 2 3 cbr 210 ------- 0 0.0 3.0 12 12
r 0.576586 1 2 cbr 210 ------- 0 0.0 3.0 15 15
+ 0.576586 2 3 cbr 210 ------- 0 0.0 3.0 15 15
- 0.576586 2 3 cbr 210 ------- 0 0.0 3.0 15 15
r 0.577668 0 1 cbr 210 ------- 0 0.0 3.0 18 18
+ 0.577668 1 2 cbr 210 ------- 0 0.0 3.0 18 18
- 0.577668 1 2 cbr 210 ------- 0 0.0 3.0 18 18
+ 0.57875 0 1 cbr 210 ------- 0 0.0 3.0 21 21
- 0.57875 0 1 cbr 210 ------- 0 0.0 3.0 21 21
r 0.579254 2 3 cbr 210 ------- 0 0.0 3.0 13 13
r 0.580336 1 2 cbr 210 ------- 0 0.0 3.0 16 16
+ 0.580336 2 3 cbr 210 ------- 0 0.0 3.0 16 16
- 0.580336 2 3 cbr 210 ------- 0 0.0 3.0 16 16
r 0.581418 0 1 cbr 210 ------- 0 0.0 3.0 19 19
+ 0.581418 1 2 cbr 210 ------- 0 0.0 3.0 19 19
- 0.581418 1 2 cbr 210 ------- 0 0.0 3.0 19 19
+ 0.5825 0 1 cbr 210 ------- 0 0.0 3.0 22 22
- 0.5825 0 1 cbr 210 ------- 0 0.0 3.0 22 22
r 0.583004 2 3 cbr 210 ------- 0 0.0 3.0 14 14
r 0.584086 1 2 cbr 210 ------- 0 0.0 3.0 17 17
+ 0.584086 2 3 cbr 210 ------- 0 0.0 3.0 17 17
- 0.584086 2 3 cbr 210 ------- 0 0.0 3.0 17 17
r 0.585168 0 1 cbr 210 ------- 0 0.0 3.0 20 20
+ 0.585168 1 2 cbr 210 ------- 0 0.0 3.0 20 20
- 0.585168 1 2 cbr 210 ------- 0 0.0 3.0 20 20
+ 0.58625 0 1 cbr 210 ------- 0 0.0 3.0 23 23
- 0.58625 0 1 cbr 210 ------- 0 0.0 3.0 23 23
r 0.586754 2 3 cbr 210 ------- 0 0.0 3.0 15 15
r 0.587836 1 2 cbr 210 ------- 0 0.0 3.0 18 18
+ 0.587836 2 3 cbr 210 ------- 0 0.0 3.0 18 18
- 0.587836 2 3 cbr 210 ------- 0 0.0 3.0 18 18
r 0.588918 0 1 cbr 210 ------- 0 0.0 3.0 21 21
+ 0.588918 1 2 cbr 210 ------- 0 0.0 3.0 21 21
- 0.588918 1 2 cbr 210 ------- 0 0.0 3.0 21 21
+ 0.59 0 1 cbr 210 ------- 0 0.0 3.0 24 24
- 0.59 0 1 cbr 210 ------- 0 0.0 3.0 24 24
r 0.590504 2 3 cbr 210 ------- 0 0.0 3.0 16 16
r 0.591586 1 2 cbr 210 ------- 0 0.0 3.0 19 19
+ 0.591586 2 3 cbr 210 ------- 0 0.0 3.0 19 19
- 0.591586 2 3 cbr 210 ------- 0 0.0 3.0 19 19
r 0.592668 0 1 cbr 210 ------- 0 0.0 3.0 22 22
+ 0.592668 1 2 cbr 210 ------- 0 0.0 3.0 22 22
- 0.592668 1 2 cbr 210 ------- 0 0.0 3.0 22 22
+ 0.59375 0 1 cbr 210 ------- 0 0.0 3.0 25 25
- 0.59375 0 1 cbr 210 ------- 0 0.0 3.0 25 25
r 0.594254 2 3 cbr 210 ------- 0 0.0 3.0 17 17
r 0.595336 1 2 cbr 210 ------- 0 0.0 3.0 20 20
+ 0.595336 2 3 cbr 210 ------- 0 0.0 3.0 20 20
- 0.595336 2 3 cbr 210 ------- 0 0.0 3.0 20 20
r 0.596418 0 1 cbr 210 ------- 0 0.0 3.0 23 23
+ 0.596418 1 2 cbr 210 ------- 0 0.0 3.0 23 23
- 0.596418 1 2 cbr 210 ------- 0 0.0 3.0 23 23
+ 0.5975 0 1 cbr 210 ------- 0 0.0 3.0 26 26
- 0.5975 0 1 cbr 210 ------- 0 0.0 3.0 26 26
r 0.598004 2 3 cbr 210 ------- 0 0.0 3.0 18 18
r 0.599086 1 2 cbr 210 ------- 0 0.0 3.0 21 21
+ 0.599086 2 3 cbr 210 ------- 0 0.0 3.0 21 21
- 0.599086 2 3 cbr 210 ------- 0 0.0 3.0 21 21
r 0.600168 0 1 cbr 210 ------- 0 0.0 3.0 24 24
+ 0.600168 1 2 cbr 210 ------- 0 0.0 3.0 24 24
- 0.600168 1 2 cbr 210 ------- 0 0.0 3.0 24 24
+ 0.60125 0 1 cbr 210 ------- 0 0.0 3.0 27 27
- 0.60125 0 1 cbr 210 ------- 0 0.0 3.0 27 27
r 0.601754 2 3 cbr 210 ------- 0 0.0 3.0 19 19
r 0.602836 1 2 cbr 210 ------- 0 0.0 3.0 22 22
+ 0.602836 2 3 cbr 210 ------- 0 0.0 3.0 22 22
- 0.602836 2 3 cbr 210 ------- 0 0.0 3.0 22 22
r 0.603918 0 1 cbr 210 ------- 0 0.0 3.0 25 25
+ 0.603918 1 2 cbr 210 ------- 0 0.0 3.0 25 25
- 0.603918 1 2 cbr 210 ------- 0 0.0 3.0 25 25
+ 0.605 0 1 cbr 210 ------- 0 0.0 3.0 28 28
- 0.605 0 1 cbr 210 ------- 0 0.0 3.0 28 28
r 0.605504 2 3 cbr 210 ------- 0 0.0 3.0 20 20
r 0.606586 1 2 cbr 210 ------- 0 0.0 3.0 23 23
+ 0.606586 2 3 cbr 210 ------- 0 0.0 3.0 23 23
- 0.606586 2 3 cbr 210 ------- 0 0.0 3.0 23 23
r 0.607668 0 1 cbr 210 ------- 0 0.0 3.0 26 26
+ 0.607668 1 2 cbr 210 ------- 0 0.0 3.0 26 26
- 0.607668 1 2 cbr 210 ------- 0 0.0 3.0 26 26
+ 0.60875 0 1 cbr 210 ------- 0 0.0 3.0 29 29
- 0.60875 0 1 cbr 210 ------- 0 0.0 3.0 29 29
r 0.609254 2 3 cbr 210 ------- 0 0.0 3.0 21 21
r 0.610336 1 2 cbr 210 ------- 0 0.0 3.0 24 24
+ 0.610336 2 3 cbr 210 ------- 0 0.0 3.0 24 24
- 0.610336 2 3 cbr 210 ------- 0 0.0 3.0 24 24
r 0.611418 0 1 cbr 210 ------- 0 0.0 3.0 27 27
+ 0.611418 1 2 cbr 210 ------- 0 0.0 3.0 27 27
- 0.611418 1 2 cbr 210 ------- 0 0.0 3.0 27 27
+ 0.6125 0 1 cbr 210 ------- 0 0.0 3.0 30 30
- 0.6125 0 1 cbr 210 ------- 0 0.0 3.0 30 30
r 0.613004 2 3 cbr 210 ------- 0 0.0 3.0 22 22
r 0.614086 1 2 cbr 210 ------- 0 0.0 3.0 25 25
+ 0.614086 2 3 cbr 210 ------- 0 0.0 3.0 25 25
- 0.614086 2 3 cbr 210 ------- 0 0.0 3.0 25 25
r 0.615168 0 1 cbr 210 ------- 0 0.0 3.0 28 28
+ 0.615168 1 2 cbr 210 ------- 0 0.0 3.0 28 28
- 0.615168 1 2 cbr 210 ------- 0 0.0 3.0 28 28
+ 0.61625 0 1 cbr 210 ------- 0 0.0 3.0 31 31
- 0.61625 0 1 cbr 210 ------- 0 0.0 3.0 31 31
r 0.616754 2 3 cbr 210 ------- 0 0.0 3.0 23 23
r 0.617836 1 2 cbr 210 ------- 0 0.0 3.0 26 26
+ 0.617836 2 3 cbr 210 ------- 0 0.0 3.0 26 26
- 0.617836 2 3 cbr 210 ------- 0 0.0 3.0 26 26
r 0.618918 0 1 cbr 210 ------- 0 0.0 3.0 29 29
+ 0.618918 1 2 cbr 210 ------- 0 0.0 3.0 29 29
- 0.618918 1 2 cbr 210 ------- 0 0.0 3.0 29 29
+ 0.62 0 1 cbr 210 ------- 0 0.0 3.0 32 32
- 0.62 0 1 cbr 210 ------- 0 0.0 3.0 32 32
r 0.620504 2 3 cbr 210 ------- 0 0.0 3.0 24 24
r 0.621586 1 2 cbr 210 ------- 0 0.0 3.0 27 27
+ 0.621586 2 3 cbr 210 ------- 0 0.0 3.0 27 27
- 0.621586 2 3 cbr 210 ------- 0 0.0 3.0 27 27
r 0.622668 0 1 cbr 210 ------- 0 0.0 3.0 30 30
+ 0.622668 1 2 cbr 210 ------- 0 0.0 3.0 30 30
- 0.622668 1 2 cbr 210 ------- 0 0.0 3.0 30 30
+ 0.62375 0 1 cbr 210 ------- 0 0.0 3.0 33 33
- 0.62375 0 1 cbr 210 ------- 0 0.0 3.0 33 33
r 0.624254 2 3 cbr 210 ------- 0 0.0 3.0 25 25
r 0.625336 1 2 cbr 210 ------- 0 0.0 3.0 28 28
+ 0.625336 2 3 cbr 210 ------- 0 0.0 3.0 28 28
- 0.625336 2 3 cbr 210 ------- 0 0.0 3.0 28 28
r 0.626418 0 1 cbr 210 ------- 0 0.0 3.0 31 31
+ 0.626418 1 2 cbr 210 ------- 0 0.0 3.0 31 31
- 0.626418 1 2 cbr 210 ------- 0 0.0 3.0 31 31
+ 0.6275 0 1 cbr 210 ------- 0 0.0 3.0 34 34
- 0.6275 0 1 cbr 210 ------- 0 0.0 3.0 34 34
r 0.628004 2 3 cbr 210 ------- 0 0.0 3.0 26 26
r 0.629086 1 2 cbr 210 ------- 0 0.0 3.0 29 29
+ 0.629086 2 3 cbr 210 ------- 0 0.0 3.0 29 29
- 0.629086 2 3 cbr 210 ------- 0 0.0 3.0 29 29
r 0.630168 0 1 cbr 210 ------- 0 0.0 3.0 32 32
+ 0.630168 1 2 cbr 210 ------- 0 0.0 3.0 32 32
- 0.630168 1 2 cbr 210 ------- 0 0.0 3.0 32 32
+ 0.63125 0 1 cbr 210 ------- 0 0.0 3.0 35 35
- 0.63125 0 1 cbr 210 ------- 0 0.0 3.0 35 35
r 0.631754 2 3 cbr 210 ------- 0 0.0 3.0 27 27
r 0.632836 1 2 cbr 210 ------- 0 0.0 3.0 30 30
+ 0.632836 2 3 cbr 210 ------- 0 0.0 3.0 30 30
- 0.632836 2 3 cbr 210 ------- 0 0.0 3.0 30 30
r 0.633918 0 1 cbr 210 ------- 0 0.0 3.0 33 33
+ 0.633918 1 2 cbr 210 ------- 0 0.0 3.0 33 33
- 0.633918 1 2 cbr 210 ------- 0 0.0 3.0 33 33
+ 0.635 0 1 cbr 210 ------- 0 0.0 3.0 36 36
- 0.635 0 1 cbr 210 ------- 0 0.0 3.0 36 36
r 0.635504 2 3 cbr 210 ------- 0 0.0 3.0 28 28
r 0.636586 1 2 cbr 210 ------- 0 0.0 3.0 31 31
+ 0.636586 2 3 cbr 210 ------- 0 0.0 3.0 31 31
- 0.636586 2 3 cbr 210 ------- 0 0.0 3.0 31 31
r 0.637668 0 1 cbr 210 ------- 0 0.0 3.0 34 34
+ 0.637668 1 2 cbr 210 ------- 0 0.0 3.0 34 34
- 0.637668 1 2 cbr 210 ------- 0 0.0 3.0 34 34
+ 0.63875 0 1 cbr 210 ------- 0 0.0 3.0 37 37
- 0.63875 0 1 cbr 210 ------- 0 0.0 3.0 37 37
r 0.639254 2 3 cbr 210 ------- 0 0.0 3.0 29 29
r 0.640336 1 2 cbr 210 ------- 0 0.0 3.0 32 32
+ 0.640336 2 3 cbr 210 ------- 0 0.0 3.0 32 32
- 0.640336 2 3 cbr 210 ------- 0 0.0 3.0 32 32
r 0.641418 0 1 cbr 210 ------- 0 0.0 3.0 35 35
+ 0.641418 1 2 cbr 210 ------- 0 0.0 3.0 35 35
- 0.641418 1 2 cbr 210 ------- 0 0.0 3.0 35 35
+ 0.6425 0 1 cbr 210 ------- 0 0.0 3.0 38 38
- 0.6425 0 1 cbr 210 ------- 0 0.0 3.0 38 38
r 0.643004 2 3 cbr 210 ------- 0 0.0 3.0 30 30
r 0.644086 1 2 cbr 210 ------- 0 0.0 3.0 33 33
+ 0.644086 2 3 cbr 210 ------- 0 0.0 3.0 33 33
- 0.644086 2 3 cbr 210 ------- 0 0.0 3.0 33 33
r 0.645168 0 1 cbr 210 ------- 0 0.0 3.0 36 36
+ 0.645168 1 2 cbr 210 ------- 0 0.0 3.0 36 36
- 0.645168 1 2 cbr 210 ------- 0 0.0 3.0 36 36
+ 0.64625 0 1 cbr 210 ------- 0 0.0 3.0 39 39
- 0.64625 0 1 cbr 210 ------- 0 0.0 3.0 39 39
r 0.646754 2 3 cbr 210 ------- 0 0.0 3.0 31 31
r 0.647836 1 2 cbr 210 ------- 0 0.0 3.0 34 34
+ 0.647836 2 3 cbr 210 ------- 0 0.0 3.0 34 34
- 0.647836 2 3 cbr 210 ------- 0 0.0 3.0 34 34
r 0.648918 0 1 cbr 210 ------- 0 0.0 3.0 37 37
+ 0.648918 1 2 cbr 210 ------- 0 0.0 3.0 37 37
- 0.648918 1 2 cbr 210 ------- 0 0.0 3.0 37 37
+ 0.65 0 1 cbr 210 ------- 0 0.0 3.0 40 40
- 0.65 0 1 cbr 210 ------- 0 0.0 3.0 40 40
r 0.650504 2 3 cbr 210 ------- 0 0.0 3.0 32 32
r 0.651586 1 2 cbr 210 ------- 0 0.0 3.0 35 35
+ 0.651586 2 3 cbr 210 ------- 0 0.0 3.0 35 35
- 0.651586 2 3 cbr 210 ------- 0 0.0 3.0 35 35
r 0.652668 0 1 cbr 210 ------- 0 0.0 3.0 38 38
+ 0.652668 1 2 cbr 210 ------- 0 0.0 3.0 38 38
- 0.652668 1 2 cbr 210 ------- 0 0.0 3.0 38 38
+ 0.65375 0 1 cbr 210 ------- 0 0.0 3.0 41 41
- 0.65375 0 1 cbr 210 ------- 0 0.0 3.0 41 41
r 0.654254 2 3 cbr 210 ------- 0 0.0 3.0 33 33
r 0.655336 1 2 cbr 210 ------- 0 0.0 3.0 36 36
+ 0.655336 2 3 cbr 210 ------- 0 0.0 3.0 36 36
- 0.655336 2 3 cbr 210 ------- 0 0.0 3.0 36 36
r 0.656418 0 1 cbr 210 ------- 0 0.0 3.0 39 39
+ 0.656418 1 2 cbr 210 ------- 0 0.0 3.0 39 39
- 0.656418 1 2 cbr 210 ------- 0 0.0 3.0 39 39
+ 0.6575 0 1 cbr 210 ------- 0 0.0 3.0 42 42
- 0.6575 0 1 cbr 210 ------- 0 0.0 3.0 42 42
r 0.658004 2 3 cbr 210 ------- 0 0.0 3.0 34 34
r 0.659086 1 2 cbr 210 ------- 0 0.0 3.0 37 37
+ 0.659086 2 3 cbr 210 ------- 0 0.0 3.0 37 37
- 0.659086 2 3 cbr 210 ------- 0 0.0 3.0 37 37
r 0.660168 0 1 cbr 210 ------- 0 0.0 3.0 40 40
+ 0.660168 1 2 cbr 210 ------- 0 0.0 3.0 40 40
- 0.660168 1 2 cbr 210 ------- 0 0.0 3.0 40 40
+ 0.66125 0 1 cbr 210 ------- 0 0.0 3.0 43 43
- 0.66125 0 1 cbr 210 ------- 0 0.0 3.0 43 43
r 0.661754 2 3 cbr 210 ------- 0 0.0 3.0 35 35
r 0.662836 1 2 cbr 210 ------- 0 0.0 3.0 38 38
+ 0.662836 2 3 cbr 210 ------- 0 0.0 3.0 38 38
- 0.662836 2 3 cbr 210 ------- 0 0.0 3.0 38 38
r 0.663918 0 1 cbr 210 ------- 0 0.0 3.0 41 41
+ 0.663918 1 2 cbr 210 ------- 0 0.0 3.0 41 41
- 0.663918 1 2 cbr 210 ------- 0 0.0 3.0 41 41
+ 0.665 0 1 cbr 210 ------- 0 0.0 3.0 44 44
- 0.665 0 1 cbr 210 ------- 0 0.0 3.0 44 44
r 0.665504 2 3 cbr 210 ------- 0 0.0 3.0 36 36
r 0.666586 1 2 cbr 210 ------- 0 0.0 3.0 39 39
+ 0.666586 2 3 cbr 210 ------- 0 0.0 3.0 39 39
- 0.666586 2 3 cbr 210 ------- 0 0.0 3.0 39 39
r 0.667668 0 1 cbr 210 ------- 0 0.0 3.0 42 42
+ 0.667668 1 2 cbr 210 ------- 0 0.0 3.0 42 42
- 0.667668 1 2 cbr 210 ------- 0 0.0 3.0 42 42
+ 0.66875 0 1 cbr 210 ------- 0 0.0 3.0 45 45
- 0.66875 0 1 cbr 210 ------- 0 0.0 3.0 45 45
r 0.669254 2 3 cbr 210 ------- 0 0.0 3.0 37 37
r 0.670336 1 2 cbr 210 ------- 0 0.0 3.0 40 40
+ 0.670336 2 3 cbr 210 ------- 0 0.0 3.0 40 40
- 0.670336 2 3 cbr 210 ------- 0 0.0 3.0 40 40
r 0.671418 0 1 cbr 210 ------- 0 0.0 3.0 43 43
+ 0.671418 1 2 cbr 210 ------- 0 0.0 3.0 43 43
- 0.671418 1 2 cbr 210 ------- 0 0.0 3.0 43 43
+ 0.6725 0 1 cbr 210 ------- 0 0.0 3.0 46 46
- 0.6725 0 1 cbr 210 ------- 0 0.0 3.0 46 46
r 0.673004 2 3 cbr 210 ------- 0 0.0 3.0 38 38
r 0.674086 1 2 cbr 210 ------- 0 0.0 3.0 41 41
+ 0.674086 2 3 cbr 210 ------- 0 0.0 3.0 41 41
- 0.674086 2 3 cbr 210 ------- 0 0.0 3.0 41 41
r 0.675168 0 1 cbr 210 ------- 0 0.0 3.0 44 44
+ 0.675168 1 2 cbr 210 ------- 0 0.0 3.0 44 44
- 0.675168 1 2 cbr 210 ------- 0 0.0 3.0 44 44
+ 0.67625 0 1 cbr 210 ------- 0 0.0 3.0 47 47
- 0.67625 0 1 cbr 210 ------- 0 0.0 3.0 47 47
r 0.676754 2 3 cbr 210 ------- 0 0.0 3.0 39 39
r 0.677836 1 2 cbr 210 ------- 0 0.0 3.0 42 42
+ 0.677836 2 3 cbr 210 ------- 0 0.0 3.0 42 42
- 0.677836 2 3 cbr 210 ------- 0 0.0 3.0 42 42
r 0.678918 0 1 cbr 210 ------- 0 0.0 3.0 45 45
+ 0.678918 1 2 cbr 210 ------- 0 0.0 3.0 45 45
- 0.678918 1 2 cbr 210 ------- 0 0.0 3.0 45 45
+ 0.68 0 1 cbr 210 ------- 0 0.0 3.0 48 48
- 0.68 0 1 cbr 210 ------- 0 0.0 3.0 48 48
r 0.680504 2 3 cbr 210 ------- 0 0.0 3.0 40 40
r 0.681586 1 2 cbr 210 ------- 0 0.0 3.0 43 43
+ 0.681586 2 3 cbr 210 ------- 0 0.0 3.0 43 43
- 0.681586 2 3 cbr 210 ------- 0 0.0 3.0 43 43
r 0.682668 0 1 cbr 210 ------- 0 0.0 3.0 46 46
+ 0.682668 1 2 cbr 210 ------- 0 0.0 3.0 46 46
- 0.682668 1 2 cbr 210 ------- 0 0.0 3.0 46 46
+ 0.68375 0 1 cbr 210 ------- 0 0.0 3.0 49 49
- 0.68375 0 1 cbr 210 ------- 0 0.0 3.0 49 49
r 0.684254 2 3 cbr 210 ------- 0 0.0 3.0 41 41
r 0.685336 1 2 cbr 210 ------- 0 0.0 3.0 44 44
+ 0.685336 2 3 cbr 210 ------- 0 0.0 3.0 44 44
- 0.685336 2 3 cbr 210 ------- 0 0.0 3.0 44 44
r 0.686418 0 1 cbr 210 ------- 0 0.0 3.0 47 47
+ 0.686418 1 2 cbr 210 ------- 0 0.0 3.0 47 47
- 0.686418 1 2 cbr 210 ------- 0 0.0 3.0 47 47
+ 0.6875 0 1 cbr 210 ------- 0 0.0 3.0 50 50
- 0.6875 0 1 cbr 210 ------- 0 0.0 3.0 50 50
r 0.688004 2 3 cbr 210 ------- 0 0.0 3.0 42 42
r 0.689086 1 2 cbr 210 ------- 0 0.0 3.0 45 45
+ 0.689086 2 3 cbr 210 ------- 0 0.0 3.0 45 45
- 0.689086 2 3 cbr 210 ------- 0 0.0 3.0 45 45
r 0.690168 0 1 cbr 210 ------- 0 0.0 3.0 48 48
+ 0.690168 1 2 cbr 210 ------- 0 0.0 3.0 48 48
- 0.690168 1 2 cbr 210 ------- 0 0.0 3.0 48 48
+ 0.69125 0 1 cbr 210 ------- 0 0.0 3.0 51 51
- 0.69125 0 1 cbr 210 ------- 0 0.0 3.0 51 51
r 0.691754 2 3 cbr 210 ------- 0 0.0 3.0 43 43
r 0.692836 1 2 cbr 210 ------- 0 0.0 3.0 46 46
+ 0.692836 2 3 cbr 210 ------- 0 0.0 3.0 46 46
- 0.692836 2 3 cbr 210 ------- 0 0.0 3.0 46 46
r 0.693918 0 1 cbr 210 ------- 0 0.0 3.0 49 49
+ 0.693918 1 2 cbr 210 ------- 0 0.0 3.0 49 49
- 0.693918 1 2 cbr 210 ------- 0 0.0 3.0 49 49
+ 0.695 0 1 cbr 210 ------- 0 0.0 3.0 52 52
- 0.695 0 1 cbr 210 ------- 0 0.0 3.0 52 52
r 0.695504 2 3 cbr 210 ------- 0 0.0 3.0 44 44
r 0.696586 1 2 cbr 210 ------- 0 0.0 3.0 47 47
+ 0.696586 2 3 cbr 210 ------- 0 0.0 3.0 47 47
- 0.696586 2 3 cbr 210 ------- 0 0.0 3.0 47 47
r 0.697668 0 1 cbr 210 ------- 0 0.0 3.0 50 50
+ 0.697668 1 2 cbr 210 ------- 0 0.0 3.0 50 50
- 0.697668 1 2 cbr 210 ------- 0 0.0 3.0 50 50
+ 0.69875 0 1 cbr 210 ------- 0 0.0 3.0 53 53
- 0.69875 0 1 cbr 210 ------- 0 0.0 3.0 53 53
r 0.699254 2 3 cbr 210 ------- 0 0.0 3.0 45 45
r 0.700336 1 2 cbr 210 ------- 0 0.0 3.0 48 48
+ 0.700336 2 3 cbr 210 ------- 0 0.0 3.0 48 48
- 0.700336 2 3 cbr 210 ------- 0 0.0 3.0 48 48
r 0.701418 0 1 cbr 210 ------- 0 0.0 3.0 51 51
+ 0.701418 1 2 cbr 210 ------- 0 0.0 3.0 51 51
- 0.701418 1 2 cbr 210 ------- 0 0.0 3.0 51 51
+ 0.7025 0 1 cbr 210 ------- 0 0.0 3.0 54 54
- 0.7025 0 1 cbr 210 ------- 0 0.0 3.0 54 54
r 0.703004 2 3 cbr 210 ------- 0 0.0 3.0 46 46
r 0.704086 1 2 cbr 210 ------- 0 0.0 3.0 49 49
+ 0.704086 2 3 cbr 210 ------- 0 0.0 3.0 49 49
- 0.704086 2 3 cbr 210 ------- 0 0.0 3.0 49 49
r 0.705168 0 1 cbr 210 ------- 0 0.0 3.0 52 52
+ 0.705168 1 2 cbr 210 ------- 0 0.0 3.0 52 52
- 0.705168 1 2 cbr 210 ------- 0 0.0 3.0 52 52
+ 0.70625 0 1 cbr 210 ------- 0 0.0 3.0 55 55
- 0.70625 0 1 cbr 210 ------- 0 0.0 3.0 55 55
r 0.706754 2 3 cbr 210 ------- 0 0.0 3.0 47 47
r 0.707836 1 2 cbr 210 ------- 0 0.0 3.0 50 50
+ 0.707836 2 3 cbr 210 ------- 0 0.0 3.0 50 50
- 0.707836 2 3 cbr 210 ------- 0 0.0 3.0 50 50
r 0.708918 0 1 cbr 210 ------- 0 0.0 3.0 53 53
+ 0.708918 1 2 cbr 210 ------- 0 0.0 3.0 53 53
- 0.708918 1 2 cbr 210 ------- 0 0.0 3.0 53 53
+ 0.71 0 1 cbr 210 ------- 0 0.0 3.0 56 56
- 0.71 0 1 cbr 210 ------- 0 0.0 3.0 56 56
r 0.710504 2 3 cbr 210 ------- 0 0.0 3.0 48 48
r 0.711586 1 2 cbr 210 ------- 0 0.0 3.0 51 51
+ 0.711586 2 3 cbr 210 ------- 0 0.0 3.0 51 51
- 0.711586 2 3 cbr 210 ------- 0 0.0 3.0 51 51
r 0.712668 0 1 cbr 210 ------- 0 0.0 3.0 54 54
+ 0.712668 1 2 cbr 210 ------- 0 0.0 3.0 54 54
- 0.712668 1 2 cbr 210 ------- 0 0.0 3.0 54 54
+ 0.71375 0 1 cbr 210 ------- 0 0.0 3.0 57 57
- 0.71375 0 1 cbr 210 ------- 0 0.0 3.0 57 57
r 0.714254 2 3 cbr 210 ------- 0 0.0 3.0 49 49
r 0.715336 1 2 cbr 210 ------- 0 0.0 3.0 52 52
+ 0.715336 2 3 cbr 210 ------- 0 0.0 3.0 52 52
- 0.715336 2 3 cbr 210 ------- 0 0.0 3.0 52 52
r 0.716418 0 1 cbr 210 ------- 0 0.0 3.0 55 55
+ 0.716418 1 2 cbr 210 ------- 0 0.0 3.0 55 55
- 0.716418 1 2 cbr 210 ------- 0 0.0 3.0 55 55
+ 0.7175 0 1 cbr 210 ------- 0 0.0 3.0 58 58
- 0.7175 0 1 cbr 210 ------- 0 0.0 3.0 58 58
r 0.718004 2 3 cbr 210 ------- 0 0.0 3.0 50 50
r 0.719086 1 2 cbr 210 ------- 0 0.0 3.0 53 53
+ 0.719086 2 3 cbr 210 ------- 0 0.0 3.0 53 53
- 0.719086 2 3 cbr 210 ------- 0 0.0 3.0 53 53
r 0.720168 0 1 cbr 210 ------- 0 0.0 3.0 56 56
+ 0.720168 1 2 cbr 210 ------- 0 0.0 3.0 56 56
- 0.720168 1 2 cbr 210 ------- 0 0.0 3.0 56 56
+ 0.72125 0 1 cbr 210 ------- 0 0.0 3.0 59 59
- 0.72125 0 1 cbr 210 ------- 0 0.0 3.0 59 59
r 0.721754 2 3 cbr 210 ------- 0 0.0 3.0 51 51
r 0.722836 1 2 cbr 210 ------- 0 0.0 3.0 54 54
+ 0.722836 2 3 cbr 210 ------- 0 0.0 3.0 54 54
- 0.722836 2 3 cbr 210 ------- 0 0.0 3.0 54 54
r 0.723918 0 1 cbr 210 ------- 0 0.0 3.0 57 57
+ 0.723918 1 2 cbr 210 ------- 0 0.0 3.0 57 57
- 0.723918 1 2 cbr 210 ------- 0 0.0 3.0 57 57
+ 0.725 0 1 cbr 210 ------- 0 0.0 3.0 60 60
- 0.725 0 1 cbr 210 ------- 0 0.0 3.0 60 60
r 0.725504 2 3 cbr 210 ------- 0 0.0 3.0 52 52
r 0.726586 1 2 cbr 210 ------- 0 0.0 3.0 55 55
+ 0.726586 2 3 cbr 210 ------- 0 0.0 3.0 55 55
- 0.726586 2 3 cbr 210 ------- 0 0.0 3.0 55 55
r 0.727668 0 1 cbr 210 ------- 0 0.0 3.0 58 58
+ 0.727668 1 2 cbr 210 ------- 0 0.0 3.0 58 58
- 0.727668 1 2 cbr 210 ------- 0 0.0 3.0 58 58
+ 0.72875 0 1 cbr 210 ------- 0 0.0 3.0 61 61
- 0.72875 0 1 cbr 210 ------- 0 0.0 3.0 61 61
r 0.729254 2 3 cbr 210 ------- 0 0.0 3.0 53 53
r 0.730336 1 2 cbr 210 ------- 0 0.0 3.0 56 56
+ 0.730336 2 3 cbr 210 ------- 0 0.0 3.0 56 56
- 0.730336 2 3 cbr 210 ------- 0 0.0 3.0 56 56
r 0.731418 0 1 cbr 210 ------- 0 0.0 3.0 59 59
+ 0.731418 1 2 cbr 210 ------- 0 0.0 3.0 59 59
- 0.731418 1 2 cbr 210 ------- 0 0.0 3.0 59 59
+ 0.7325 0 1 cbr 210 ------- 0 0.0 3.0 62 62
- 0.7325 0 1 cbr 210 ------- 0 0.0 3.0 62 62
r 0.733004 2 3 cbr 210 ------- 0 0.0 3.0 54 54
r 0.734086 1 2 cbr 210 ------- 0 0.0 3.0 57 57
+ 0.734086 2 3 cbr 210 ------- 0 0.0 3.0 57 57
- 0.734086 2 3 cbr 210 ------- 0 0.0 3.0 57 57
r 0.735168 0 1 cbr 210 ------- 0 0.0 3.0 60 60
+ 0.735168 1 2 cbr 210 ------- 0 0.0 3.0 60 60
- 0.735168 1 2 cbr 210 ------- 0 0.0 3.0 60 60
+ 0.73625 0 1 cbr 210 ------- 0 0.0 3.0 63 63
- 0.73625 0 1 cbr 210 ------- 0 0.0 3.0 63 63
r 0.736754 2 3 cbr 210 ------- 0 0.0 3.0 55 55
r 0.737836 1 2 cbr 210 ------- 0 0.0 3.0 58 58
+ 0.737836 2 3 cbr 210 ------- 0 0.0 3.0 58 58
- 0.737836 2 3 cbr 210 ------- 0 0.0 3.0 58 58
r 0.738918 0 1 cbr 210 ------- 0 0.0 3.0 61 61
+ 0.738918 1 2 cbr 210 ------- 0 0.0 3.0 61 61
- 0.738918 1 2 cbr 210 ------- 0 0.0 3.0 61 61
+ 0.74 0 1 cbr 210 ------- 0 0.0 3.0 64 64
- 0.74 0 1 cbr 210 ------- 0 0.0 3.0 64 64
r 0.740504 2 3 cbr 210 ------- 0 0.0 3.0 56 56
r 0.741586 1 2 cbr 210 ------- 0 0.0 3.0 59 59
+ 0.741586 2 3 cbr 210 ------- 0 0.0 3.0 59 59
- 0.741586 2 3 cbr 210 ------- 0 0.0 3.0 59 59
r 0.742668 0 1 cbr 210 ------- 0 0.0 3.0 62 62
+ 0.742668 1 2 cbr 210 ------- 0 0.0 3.0 62 62
- 0.742668 1 2 cbr 210 ------- 0 0.0 3.0 62 62
+ 0.74375 0 1 cbr 210 ------- 0 0.0 3.0 65 65
- 0.74375 0 1 cbr 210 ------- 0 0.0 3.0 65 65
r 0.744254 2 3 cbr 210 ------- 0 0.0 3.0 57 57
r 0.745336 1 2 cbr 210 ------- 0 0.0 3.0 60 60
+ 0.745336 2 3 cbr 210 ------- 0 0.0 3.0 60 60
- 0.745336 2 3 cbr 210 ------- 0 0.0 3.0 60 60
r 0.746418 0 1 cbr 210 ------- 0 0.0 3.0 63 63
+ 0.746418 1 2 cbr 210 ------- 0 0.0 3.0 63 63
- 0.746418 1 2 cbr 210 ------- 0 0.0 3.0 63 63
+ 0.7475 0 1 cbr 210 ------- 0 0.0 3.0 66 66
- 0.7475 0 1 cbr 210 ------- 0 0.0 3.0 66 66
r 0.748004 2 3 cbr 210 ------- 0 0.0 3.0 58 58
r 0.749086 1 2 cbr 210 ------- 0 0.0 3.0 61 61
+ 0.749086 2 3 cbr 210 ------- 0 0.0 3.0 61 61
- 0.749086 2 3 cbr 210 ------- 0 0.0 3.0 61 61
r 0.750168 0 1 cbr 210 ------- 0 0.0 3.0 64 64
+ 0.750168 1 2 cbr 210 ------- 0 0.0 3.0 64 64
- 0.750168 1 2 cbr 210 ------- 0 0.0 3.0 64 64
+ 0.75125 0 1 cbr 210 ------- 0 0.0 3.0 67 67
- 0.75125 0 1 cbr 210 ------- 0 0.0 3.0 67 67
r 0.751754 2 3 cbr 210 ------- 0 0.0 3.0 59 59
r 0.752836 1 2 cbr 210 ------- 0 0.0 3.0 62 62
+ 0.752836 2 3 cbr 210 ------- 0 0.0 3.0 62 62
- 0.752836 2 3 cbr 210 ------- 0 0.0 3.0 62 62
r 0.753918 0 1 cbr 210 ------- 0 0.0 3.0 65 65
+ 0.753918 1 2 cbr 210 ------- 0 0.0 3.0 65 65
- 0.753918 1 2 cbr 210 ------- 0 0.0 3.0 65 65
+ 0.755 0 1 cbr 210 ------- 0 0.0 3.0 68 68
- 0.755 0 1 cbr 210 ------- 0 0.0 3.0 68 68
r 0.755504 2 3 cbr 210 ------- 0 0.0 3.0 60 60
r 0.756586 1 2 cbr 210 ------- 0 0.0 3.0 63 63
+ 0.756586 2 3 cbr 210 ------- 0 0.0 3.0 63 63
- 0.756586 2 3 cbr 210 ------- 0 0.0 3.0 63 63
r 0.757668 0 1 cbr 210 ------- 0 0.0 3.0 66 66
+ 0.757668 1 2 cbr 210 ------- 0 0.0 3.0 66 66
- 0.757668 1 2 cbr 210 ------- 0 0.0 3.0 66 66
+ 0.75875 0 1 cbr 210 ------- 0 0.0 3.0 69 69
- 0.75875 0 1 cbr 210 ------- 0 0.0 3.0 69 69
r 0.759254 2 3 cbr 210 ------- 0 0.0 3.0 61 61
r 0.760336 1 2 cbr 210 ------- 0 0.0 3.0 64 64
+ 0.760336 2 3 cbr 210 ------- 0 0.0 3.0 64 64
- 0.760336 2 3 cbr 210 ------- 0 0.0 3.0 64 64
r 0.761418 0 1 cbr 210 ------- 0 0.0 3.0 67 67
+ 0.761418 1 2 cbr 210 ------- 0 0.0 3.0 67 67
- 0.761418 1 2 cbr 210 ------- 0 0.0 3.0 67 67
+ 0.7625 0 1 cbr 210 ------- 0 0.0 3.0 70 70
- 0.7625 0 1 cbr 210 ------- 0 0.0 3.0 70 70
r 0.763004 2 3 cbr 210 ------- 0 0.0 3.0 62 62
r 0.764086 1 2 cbr 210 ------- 0 0.0 3.0 65 65
+ 0.764086 2 3 cbr 210 ------- 0 0.0 3.0 65 65
- 0.764086 2 3 cbr 210 ------- 0 0.0 3.0 65 65
r 0.765168 0 1 cbr 210 ------- 0 0.0 3.0 68 68
+ 0.765168 1 2 cbr 210 ------- 0 0.0 3.0 68 68
- 0.765168 1 2 cbr 210 ------- 0 0.0 3.0 68 68
+ 0.76625 0 1 cbr 210 ------- 0 0.0 3.0 71 71
- 0.76625 0 1 cbr 210 ------- 0 0.0 3.0 71 71
r 0.766754 2 3 cbr 210 ------- 0 0.0 3.0 63 63
r 0.767836 1 2 cbr 210 ------- 0 0.0 3.0 66 66
+ 0.767836 2 3 cbr 210 ------- 0 0.0 3.0 66 66
- 0.767836 2 3 cbr 210 ------- 0 0.0 3.0 66 66
r 0.768918 0 1 cbr 210 ------- 0 0.0 3.0 69 69
+ 0.768918 1 2 cbr 210 ------- 0 0.0 3.0 69 69
- 0.768918 1 2 cbr 210 ------- 0 0.0 3.0 69 69
+ 0.77 0 1 cbr 210 ------- 0 0.0 3.0 72 72
- 0.77 0 1 cbr 210 ------- 0 0.0 3.0 72 72
r 0.770504 2 3 cbr 210 ------- 0 0.0 3.0 64 64
r 0.771586 1 2 cbr 210 ------- 0 0.0 3.0 67 67
+ 0.771586 2 3 cbr 210 ------- 0 0.0 3.0 67 67
- 0.771586 2 3 cbr 210 ------- 0 0.0 3.0 67 67
r 0.772668 0 1 cbr 210 ------- 0 0.0 3.0 70 70
+ 0.772668 1 2 cbr 210 ------- 0 0.0 3.0 70 70
- 0.772668 1 2 cbr 210 ------- 0 0.0 3.0 70 70
+ 0.77375 0 1 cbr 210 ------- 0 0.0 3.0 73 73
- 0.77375 0 1 cbr 210 ------- 0 0.0 3.0 73 73
r 0.774254 2 3 cbr 210 ------- 0 0.0 3.0 65 65
r 0.775336 1 2 cbr 210 ------- 0 0.0 3.0 68 68
+ 0.775336 2 3 cbr 210 ------- 0 0.0 3.0 68 68
- 0.775336 2 3 cbr 210 ------- 0 0.0 3.0 68 68
r 0.776418 0 1 cbr 210 ------- 0 0.0 3.0 71 71
+ 0.776418 1 2 cbr 210 ------- 0 0.0 3.0 71 71
- 0.776418 1 2 cbr 210 ------- 0 0.0 3.0 71 71
+ 0.7775 0 1 cbr 210 ------- 0 0.0 3.0 74 74
- 0.7775 0 1 cbr 210 ------- 0 0.0 3.0 74 74
r 0.778004 2 3 cbr 210 ------- 0 0.0 3.0 66 66
r 0.779086 1 2 cbr 210 ------- 0 0.0 3.0 69 69
+ 0.779086 2 3 cbr 210 ------- 0 0.0 3.0 69 69
- 0.779086 2 3 cbr 210 ------- 0 0.0 3.0 69 69
r 0.780168 0 1 cbr 210 ------- 0 0.0 3.0 72 72
+ 0.780168 1 2 cbr 210 ------- 0 0.0 3.0 72 72
- 0.780168 1 2 cbr 210 ------- 0 0.0 3.0 72 72
+ 0.78125 0 1 cbr 210 ------- 0 0.0 3.0 75 75
- 0.78125 0 1 cbr 210 ------- 0 0.0 3.0 75 75