n -t * -s 0  -x 623.515625 -y 538.09375 -Z 0 -z 10.000000  -v circle -c black
V -t * -v 1.0a5 -a 0
W -t * -x 643.515625 -y 609.656250
A -t * -n 1 -p 0 -o 0x7fffffff -c 30 -a 1
A -t * -h 1 -m 1073741823 -s 0
